 TITLE = "CP"
 VARIABLES = i, XC, CP, CF, YPLUS
 ZONE T = " BL=           1 ,flg=           1  ",I=         100 ,J=           1
  2    0.00500000 76348.06250000   -14.97902203     0.00971527
  3    0.01500005 76367.06250000    11.92730713     0.00866930
  4    0.02500020 76391.03906250    76.66313934     0.02197891
  5    0.03500045 76406.93750000   179.17587280     0.03360104
  6    0.04500080 76407.35937500   312.18988037     0.04435293
  7    0.05500126 76389.01562500   468.54916382     0.05433636
  8    0.06500181 76349.96093750   642.43554688     0.06362499
  9    0.07500246 76288.92187500   828.78448486     0.07226595
 10    0.08500321 76205.28906250  1022.95849609     0.08028639
 11    0.09500407 76099.01562500  1220.64025879     0.08770145
 12    0.10500503 75970.61718750  1417.80151367     0.09451933
 13    0.11500607 75821.13281250  1610.72753906     0.10074510
 14    0.12500724 75652.05468750  1796.07556152     0.10638374
 15    0.13500850 75465.29687500  1970.89050293     0.11144079
 16    0.14500985 75263.12500000  2132.67578125     0.11592454
 17    0.15501131 75048.00781250  2279.40722656     0.11984609
 18    0.16501287 74822.60156250  2409.54077148     0.12321967
 19    0.17501454 74589.60937500  2522.02246094     0.12606293
 20    0.18501630 74351.71875000  2616.25903320     0.12839653
 21    0.19501816 74111.53125000  2692.06958008     0.13024351
 22    0.20502011 73871.50000000  2749.69116211     0.13163000
 23    0.21502218 73633.84375000  2789.67993164     0.13258371
 24    0.22502434 73400.57031250  2812.88037109     0.13313387
 25    0.23502660 73173.40625000  2820.37548828     0.13331112
 26    0.24502896 72953.78125000  2813.42480469     0.13314675
 27    0.25503141 72742.87500000  2793.37353516     0.13267145
 28    0.26503399 72541.57812500  2761.67871094     0.13191661
 29    0.27503663 72350.53125000  2719.81250000     0.13091290
 30    0.28503942 72170.15625000  2669.24804688     0.12969027
 31    0.29504228 72000.62500000  2611.41650391     0.12827766
 32    0.30504525 71841.96875000  2547.68017578     0.12670256
 33    0.31504834 71694.03906250  2479.33300781     0.12499146
 34    0.32505149 71556.55468750  2407.56005859     0.12316903
 35    0.33505476 71429.14843750  2333.46142578     0.12125880
 36    0.34505814 71311.35937500  2258.00756836     0.11928220
 37    0.35506159 71202.66406250  2182.07543945     0.11725944
 38    0.36506516 71102.51562500  2106.43164062     0.11520905
 39    0.37506884 71010.31250000  2031.74218750     0.11314809
 40    0.38507259 70925.46875000  1958.55798340     0.11109158
 41    0.39507648 70847.40625000  1887.35070801     0.10905341
 42    0.40508047 70775.51562500  1818.52258301     0.10704645
 43    0.41508454 70709.23437500  1752.37292480     0.10508148
 44    0.42508870 70648.03125000  1689.15087891     0.10316851
 45    0.43509299 70591.38281250  1629.03576660     0.10131605
 46    0.44509736 70538.78906250  1572.16284180     0.09953176
 47    0.45510182 70489.78906250  1518.61169434     0.09782196
 48    0.46510640 70443.95312500  1468.43859863     0.09619242
 49    0.47511107 70400.89062500  1421.64807129     0.09464747
 50    0.48511586 70360.21093750  1378.24340820     0.09319141
 51    0.49512076 70321.58593750  1338.18249512     0.09182704
 52    0.50500250 70285.13281250  1301.87634277     0.09057280
 53    0.51488411 70250.07031250  1268.69775391     0.08941121
 54    0.52488887 70215.72656250  1238.27368164     0.08833265
 55    0.53489357 70182.29687500  1210.94506836     0.08735246
 56    0.54489815 70149.54687500  1186.64392090     0.08647154
 57    0.55490261 70117.25781250  1165.28381348     0.08568973
 58    0.56490695 70085.21093750  1146.80029297     0.08500742
 59    0.57491124 70053.23437500  1131.11584473     0.08442411
 60    0.58491540 70021.11718750  1118.17492676     0.08393978
 61    0.59491950 69988.70312500  1107.92492676     0.08355417
 62    0.60492349 69955.80468750  1100.32910156     0.08326726
 63    0.61492735 69922.25000000  1095.35852051     0.08307897
 64    0.62493110 69887.86718750  1093.00366211     0.08298961
 65    0.63493484 69852.46875000  1093.27624512     0.08299996
 66    0.64493835 69815.86718750  1096.20214844     0.08311095
 67    0.65494186 69777.85937500  1101.83374023     0.08332416
 68    0.66494524 69738.22656250  1110.24719238     0.08364169
 69    0.67494857 69696.73437500  1121.56396484     0.08406689
 70    0.68495166 69653.08593750  1135.91442871     0.08460300
 71    0.69495469 69606.97656250  1153.46716309     0.08525416
 72    0.70495772 69558.06250000  1174.44909668     0.08602606
 73    0.71496052 69505.90625000  1199.09558105     0.08692402
 74    0.72496331 69450.03906250  1227.69995117     0.08795470
 75    0.73496598 69389.88281250  1260.57861328     0.08912466
 76    0.74496853 69324.78125000  1298.08923340     0.09044097
 77    0.75497103 69253.94531250  1340.60144043     0.09191000
 78    0.76497334 69176.46093750  1388.48913574     0.09353716
 79    0.77497566 69091.28125000  1442.12402344     0.09532663
 80    0.78497779 68997.15625000  1501.82177734     0.09727968
 81    0.79497987 68892.67187500  1567.79443359     0.09939339
 82    0.80498183 68776.19531250  1640.11389160     0.10165997
 83    0.81498373 68645.89843750  1718.61511230     0.10406441
 84    0.82498544 68499.75000000  1802.78576660     0.10658227
 85    0.83498716 68335.56250000  1891.65185547     0.10917760
 86    0.84498870 68150.98437500  1983.61804199     0.11180004
 87    0.85499012 67943.66406250  2076.27368164     0.11438136
 88    0.86499155 67711.32812500  2166.20458984     0.11683223
 89    0.87499273 67452.00781250  2248.75854492     0.11903766
 90    0.88499385 67164.30468750  2317.83178711     0.12085202
 91    0.89499497 66847.77343750  2365.74804688     0.12209481
 92    0.90499586 66503.35156250  2383.12475586     0.12254239
 93    0.91499674 66134.06250000  2358.96948242     0.12191976
 94    0.92499751 65745.69531250  2281.10034180     0.11989060
 95    0.93499815 65347.81250000  2136.95581055     0.11604080
 96    0.94499874 64954.79687500  1915.30834961     0.10985815
 97    0.95499915 64586.63281250  1608.79785156     0.10068474
 98    0.96499956 64269.94531250  1218.14465332     0.08761175
 99    0.97499979 64041.87500000   763.74920654     0.06937266
100    0.98499995 63952.99218750   318.52667236     0.04480081
101    0.99500000 64022.70312500    42.12889481     0.01629307
 ZONE T = " BL=           1 ,flg=           2  ",I=         100 ,J=           1
  2    0.00500000 -6263.05273438   -42.14080429     0.01629539
  3    0.01500005 -6332.76757812  -318.56417847     0.04480349
  4    0.02500020 -6243.87304688  -763.83642578     0.06937668
  5    0.03500045 -6015.76562500 -1218.27270508     0.08761644
  6    0.04500080 -5699.04101562 -1608.95092773     0.10068963
  7    0.05500126 -5330.83789062 -1915.47607422     0.10986307
  8    0.06500181 -4937.77734375 -2137.12866211     0.11604561
  9    0.07500246 -4539.86328125 -2281.26928711     0.11989514
 10    0.08500321 -4151.45898438 -2359.13134766     0.12192407
 11    0.09500407 -3782.13671875 -2383.26953125     0.12254621
 12    0.10500503 -3437.69531250 -2365.88183594     0.12209838
 13    0.11500607 -3121.13281250 -2317.94604492     0.12085511
 14    0.12500724 -2833.41601562 -2248.85034180     0.11904018
 15    0.13500850 -2574.08398438 -2166.28173828     0.11683442
 16    0.14500985 -2341.73632812 -2076.33886719     0.11438327
 17    0.15501131 -2134.40625000 -1983.66516113     0.11180147
 18    0.16501287 -1949.82421875 -1891.68469238     0.10917865
 19    0.17501454 -1785.62500000 -1802.80444336     0.10658292
 20    0.18501630 -1639.48242188 -1718.61706543     0.10406457
 21    0.19501816 -1509.18554688 -1640.10656738     0.10165983
 22    0.20502011 -1392.70898438 -1567.77124023     0.09939274
 23    0.21502218 -1288.22070312 -1501.78808594     0.09727868
 24    0.22502434 -1194.09960938 -1442.08227539     0.09532534
 25    0.23502660 -1108.91992188 -1388.43566895     0.09353545
 26    0.24502896 -1031.44726562 -1340.53808594     0.09190792
 27    0.25503141  -960.61718750 -1298.01867676     0.09043860
 28    0.26503399  -895.51757812 -1260.50170898     0.08912203
 29    0.27503663  -835.36718750 -1227.61230469     0.08795165
 30    0.28503942  -779.50585938 -1199.00305176     0.08692075
 31    0.29504228  -727.36132812 -1174.35095215     0.08602255
 32    0.30504525  -678.44921875 -1153.36474609     0.08525044
 33    0.31504834  -632.35351562 -1135.80187988     0.08459888
 34    0.32505149  -588.71484375 -1121.44921875     0.08406267
 35    0.33505476  -547.22070312 -1110.13000488     0.08363735
 36    0.34505814  -507.59960938 -1101.70922852     0.08331954
 37    0.35506159  -469.60156250 -1096.07263184     0.08310612
 38    0.36506516  -433.00781250 -1093.14550781     0.08299507
 39    0.37506884  -397.61718750 -1092.87133789     0.08298466
 40    0.38507259  -363.23828125 -1095.22155762     0.08307385
 41    0.39507648  -329.69140625 -1100.18786621     0.08326198
 42    0.40508047  -296.80273438 -1107.77905273     0.08354874
 43    0.41508454  -264.39257812 -1118.02502441     0.08393423
 44    0.42508870  -232.28710938 -1130.96093750     0.08441840
 45    0.43509299  -200.31250000 -1146.63989258     0.08500156
 46    0.44509736  -168.28125000 -1165.12341309     0.08568391
 47    0.45510182  -135.99414062 -1186.47583008     0.08646549
 48    0.46510640  -103.25195312 -1210.77575684     0.08734643
 49    0.47511107   -69.83007812 -1238.09667969     0.08832642
 50    0.48511586   -35.49804688 -1268.51367188     0.08940481
 51    0.49512076     0.00000000 -1302.10168457     0.09058072
 52    0.50500250    36.47070312 -1338.48010254     0.09183734
 53    0.51488411    74.62695312 -1378.04577637     0.09318482
 54    0.52488887   115.29882812 -1421.44079590     0.09464066
 55    0.53489357   158.35351562 -1468.21679688     0.09618524
 56    0.54489815   204.17578125 -1518.38391113     0.09781469
 57    0.55490261   253.16406250 -1571.92395020     0.09952429
 58    0.56490695   305.75195312 -1628.78771973     0.10130843
 59    0.57491124   362.39453125 -1688.88928223     0.10316062
 60    0.58491540   423.58789062 -1752.09997559     0.10507340
 61    0.59491950   489.84765625 -1818.23779297     0.10703817
 62    0.60492349   561.72656250 -1887.05505371     0.10904496
 63    0.61492735   639.78515625 -1958.24084473     0.11108269
 64    0.62493110   724.61328125 -2031.40954590     0.11313893
 65    0.63493484   816.79101562 -2106.08764648     0.11519976
 66    0.64493835   916.93359375 -2181.71459961     0.11724985
 67    0.65494186  1025.60351562 -2257.62207031     0.11927213
 68    0.66494524  1143.37304688 -2333.05712891     0.12124840
 69    0.67494857  1270.75000000 -2407.14526367     0.12315851
 70    0.68495166  1408.21093750 -2478.90161133     0.12498070
 71    0.69495469  1556.11718750 -2547.22631836     0.12669140
 72    0.70495772  1714.73632812 -2610.94580078     0.12826622
 73    0.71496052  1884.23632812 -2668.76074219     0.12967856
 74    0.72496331  2064.58007812 -2719.30493164     0.13090080
 75    0.73496598  2255.58203125 -2761.15185547     0.13190416
 76    0.74496853  2456.83398438 -2792.83203125     0.13265869
 77    0.75497103  2667.69140625 -2812.87451172     0.13313386
 78    0.76497334  2887.27148438 -2819.82519531     0.13329825
 79    0.77497566  3114.38281250 -2812.31811523     0.13312069
 80    0.78497779  3347.60351562 -2789.11669922     0.13257043
 81    0.79497987  3585.19726562 -2749.12280273     0.13161652
 82    0.80498183  3825.17187500 -2691.50805664     0.13023004
 83    0.81498373  4065.29101562 -2615.70825195     0.12838313
 84    0.82498544  4303.12500000 -2521.48950195     0.12604974
 85    0.83498716  4536.05468750 -2409.02587891     0.12320662
 86    0.84498870  4761.40625000 -2278.91528320     0.11983327
 87    0.85499012  4976.46875000 -2132.21020508     0.11591198
 88    0.86499155  5178.58398438 -1970.45556641     0.11142860
 89    0.87499273  5365.28710938 -1795.68041992     0.10637213
 90    0.88499385  5534.31835938 -1610.36999512     0.10073402
 91    0.89499497  5683.76171875 -1417.48498535     0.09450887
 92    0.90499586  5812.12890625 -1220.36804199     0.08769175
 93    0.91499674  5918.37109375 -1022.72802734     0.08027742
 94    0.92499751  6001.98046875  -828.59466553     0.07225774
 95    0.93499815  6062.99218750  -642.28833008     0.06361776
 96    0.94499874  6102.04101562  -468.44076538     0.05433012
 97    0.95499915  6120.37890625  -312.11264038     0.04434749
 98    0.96499956  6119.94921875  -179.12907410     0.03359668
 99    0.97499979  6104.05664062   -76.63974762     0.02197558
100    0.98499995  6080.07812500   -11.92298412     0.00866774
101    0.99500000  6061.08398438    14.97615242     0.00971434
 ZONE T = " BL=           1 ,flg=           3  ",I=         100 ,J=           1
  2    0.00500000  6061.08398438    14.98425388     0.00971696
  3    0.01500005  6047.18164062   -12.28363705     0.00879785
  4    0.02500020  6029.18945312   -76.47092438     0.02195134
  5    0.03500045  6019.96093750  -174.49827576     0.03315954
  6    0.04500080  6025.27929688  -296.17333984     0.04320022
  7    0.05500125  6046.08398438  -432.70739746     0.05221678
  8    0.06500181  6081.80859375  -578.16137695     0.06035836
  9    0.07500246  6131.47656250  -728.76092529     0.06776500
 10    0.08500321  6194.06640625  -882.26568604     0.07456116
 11    0.09500407  6268.70507812 -1037.50219727     0.08085511
 12    0.10500503  6354.78125000 -1193.99645996     0.08673901
 13    0.11500608  6451.95507812 -1351.69189453     0.09228940
 14    0.12500724  6560.13867188 -1510.75134277     0.09756845
 15    0.13500850  6679.46484375 -1671.38610840     0.10262456
 16    0.14500985  6810.22851562 -1833.80041504     0.10749517
 17    0.15501131  6952.84765625 -1998.11621094     0.11220786
 18    0.16501287  7107.83203125 -2164.35278320     0.11678228
 19    0.17501453  7275.73437500 -2332.43481445     0.12123212
 20    0.18501629  7457.14062500 -2502.18237305     0.12556610
 21    0.19501814  7652.65039062 -2673.33593750     0.12978955
 22    0.20502011  7862.85156250 -2845.56152344     0.13390504
 23    0.21502218  8088.32617188 -3018.47216797     0.13791342
 24    0.22502433  8329.62695312 -3191.63134766     0.14181405
 25    0.23502660  8587.27148438 -3364.58398438     0.14560579
 26    0.24502897  8861.74414062 -3536.85888672     0.14928694
 27    0.25503141  9153.48437500 -3707.97143555     0.15285552
 28    0.26503399  9462.86523438 -3877.44750977     0.15630969
 29    0.27503663  9790.22656250 -4044.83471680     0.15964794
 30    0.28503942 10135.83007812 -4209.69775391     0.16286899
 31    0.29504228 10499.91308594 -4371.63818359     0.16597207
 32    0.30504525 10882.61230469 -4530.28271484     0.16895677
 33    0.31504834 11284.02929688 -4685.31738281     0.17182346
 34    0.32505149 11704.22070312 -4836.45849609     0.17457284
 35    0.33505476 12143.16894531 -4983.46728516     0.17720613
 36    0.34505814 12600.82226562 -5126.16210938     0.17972526
 37    0.35506159 13077.09570312 -5264.39257812     0.18213235
 38    0.36506516 13571.84960938 -5398.05078125     0.18442993
 39    0.37506884 14084.92285156 -5527.08300781     0.18662117
 40    0.38507259 14616.14257812 -5651.44189453     0.18870898
 41    0.39507648 15165.28515625 -5771.13378906     0.19069685
 42    0.40508044 15732.14843750 -5886.17773438     0.19258818
 43    0.41508454 16316.48632812 -5996.61914062     0.19438651
 44    0.42508870 16918.08593750 -6102.51757812     0.19609541
 45    0.43509296 17536.70312500 -6203.92041016     0.19771792
 46    0.44509733 18172.10156250 -6300.90380859     0.19925736
 47    0.45510182 18824.04687500 -6393.54638672     0.20071685
 48    0.46510640 19492.32421875 -6481.91406250     0.20209919
 49    0.47511107 20176.71875000 -6566.05566406     0.20340666
 50    0.48511589 20877.02343750 -6646.00439453     0.20464128
 51    0.49512073 21593.05468750 -6721.73876953     0.20580398
 52    0.50500250 22315.33593750 -6792.50634766     0.20688450
 53    0.51488411 23052.47265625 -6859.38964844     0.20790055
 54    0.52488887 23813.92187500 -6922.91943359     0.20886111
 55    0.53489357 24590.18554688 -6982.25146484     0.20975423
 56    0.54489815 25381.11523438 -7037.36718750     0.21058044
 57    0.55490261 26186.50195312 -7088.18847656     0.21133944
 58    0.56490695 27006.13281250 -7134.61572266     0.21203046
 59    0.57491124 27839.76171875 -7176.54150391     0.21265252
 60    0.58491540 28687.15234375 -7213.84912109     0.21320456
 61    0.59491950 29548.03710938 -7246.40527344     0.21368511
 62    0.60492349 30422.15039062 -7274.05078125     0.21409233
 63    0.61492735 31309.17968750 -7296.61572266     0.21442413
 64    0.62493110 32208.80859375 -7313.91064453     0.21467811
 65    0.63493478 33120.66406250 -7325.74267578     0.21485169
 66    0.64493835 34044.37500000 -7331.91259766     0.21494214
 67    0.65494186 34979.51562500 -7332.20605469     0.21494643
 68    0.66494524 35925.65234375 -7326.39550781     0.21486124
 69    0.67494851 36882.29687500 -7314.22949219     0.21468279
 70    0.68495166 37848.91796875 -7295.45654297     0.21440710
 71    0.69495475 38824.96093750 -7269.82031250     0.21403006
 72    0.70495766 39809.85546875 -7237.01757812     0.21354665
 73    0.71496058 40802.89062500 -7196.74658203     0.21295166
 74    0.72496331 41803.44140625 -7148.68798828     0.21223944
 75    0.73496598 42810.72656250 -7092.44726562     0.21140294
 76    0.74496853 43823.95312500 -7027.63574219     0.21043479
 77    0.75497097 44842.25781250 -6953.78222656     0.20932613
 78    0.76497340 45864.67187500 -6870.38183594     0.20806707
 79    0.77497560 46890.21875000 -6776.83642578     0.20664573
 80    0.78497779 47917.70703125 -6672.44042969     0.20504788
 81    0.79497993 48945.89453125 -6556.44580078     0.20325778
 82    0.80498183 49973.40625000 -6427.90185547     0.20125541
 83    0.81498373 50998.58984375 -6285.73730469     0.19901742
 84    0.82498550 52019.64843750 -6128.73144531     0.19651613
 85    0.83498716 53034.46875000 -5955.44677734     0.19371806
 86    0.84498870 54040.58593750 -5764.24121094     0.19058295
 87    0.85499012 55035.14062500 -5553.24365234     0.18706232
 88    0.86499149 56014.72265625 -5320.34228516     0.18309763
 89    0.87499273 56975.30468750 -5063.22265625     0.17861849
 90    0.88499391 57912.09375000 -4779.37792969     0.17353961
 91    0.89499491 58819.42968750 -4466.17089844     0.16775699
 92    0.90499592 59690.50781250 -4121.00634766     0.16114417
 93    0.91499674 60517.35156250 -3741.51757812     0.15354541
 94    0.92499751 61290.49218750 -3325.90014648     0.14476633
 95    0.93499815 61998.79687500 -2873.54736328     0.13456190
 96    0.94499868 62629.34375000 -2385.93237305     0.12261455
 97    0.95499921 63167.53906250 -1867.87158203     0.10848919
 98    0.96499950 63597.25000000 -1329.32519531     0.09152264
 99    0.97499979 63897.70312500  -792.80273438     0.07067983
100    0.98500001 64039.75000000  -319.62060547     0.04487767
101    0.99500000 64022.70312500   -41.23215485     0.01611873
 ZONE T = " BL=           1 ,flg=           4  ",I=         100 ,J=           1
  2    0.00500000 -6263.05273438    41.24931335     0.01612210
  3    0.01500005 -4826.00195312   319.66229248     0.04488064
  4    0.02500020 -3548.05273438   792.89654541     0.07068408
  5    0.03500045 -2428.51367188  1329.46728516     0.09152762
  6    0.04500080 -1438.23437500  1868.06848145     0.10849500
  7    0.05500125  -556.44140625  2386.17285156     0.12262084
  8    0.06500181   233.01953125  2873.81958008     0.13456841
  9    0.07500246   944.71875000  3326.20825195     0.14477316
 10    0.08500321  1591.59765625  3741.84741211     0.15355232
 11    0.09500407  2184.78515625  4121.36083984     0.16115125
 12    0.10500503  2733.74218750  4466.53906250     0.16776405
 13    0.11500608  3246.47265625  4779.75585938     0.17354664
 14    0.12500724  3729.74414062  5063.61425781     0.17862558
 15    0.13500850  4189.24414062  5320.73828125     0.18310462
 16    0.14500985  4629.75976562  5553.64306641     0.18706922
 17    0.15501131  5055.32226562  5764.64746094     0.19058985
 18    0.16501287  5469.32617188  5955.85742188     0.19372492
 19    0.17501453  5874.65234375  6129.14550781     0.19652297
 20    0.18501629  6273.75390625  6286.15283203     0.19902417
 21    0.19501814  6668.73632812  6428.31201172     0.20126201
 22    0.20502011  7061.43554688  6556.86132812     0.20326442
 23    0.21502218  7453.44140625  6672.87011719     0.20505469
 24    0.22502433  7846.16406250  6777.25146484     0.20665224
 25    0.23502660  8240.87304688  6870.79931641     0.20807360
 26    0.24502897  8638.69726562  6954.20996094     0.20933278
 27    0.25503141  9040.65429688  7028.06445312     0.21044143
 28    0.26503399  9447.70898438  7092.87890625     0.21140957
 29    0.27503663  9860.71093750  7149.12109375     0.21224606
 30    0.28503942 10280.47949219  7197.19482422     0.21295848
 31    0.29504228 10707.73925781  7237.46679688     0.21355347
 32    0.30504525 11143.19726562  7270.27197266     0.21403691
 33    0.31504834 11587.49804688  7295.92236328     0.21441415
 34    0.32505149 12041.22851562  7314.70166016     0.21468993
 35    0.33505476 12504.96191406  7326.87451172     0.21486849
 36    0.34505814 12979.22070312  7332.70117188     0.21495388
 37    0.35506159 13464.47363281  7332.41601562     0.21494971
 38    0.36506516 13961.18066406  7326.25097656     0.21485932
 39    0.37506884 14469.75683594  7314.42968750     0.21468592
 40    0.38507259 14990.57324219  7297.14160156     0.21443208
 41    0.39507648 15524.00000000  7274.59472656     0.21410052
 42    0.40508044 16070.35351562  7246.96240234     0.21369351
 43    0.41508454 16629.95117188  7214.42187500     0.21321321
 44    0.42508870 17203.05468750  7177.12500000     0.21266137
 45    0.43509299 17789.93164062  7135.20410156     0.21203940
 46    0.44509733 18390.82421875  7088.79052734     0.21134862
 47    0.45510182 19005.97460938  7037.98779297     0.21058992
 48    0.46510640 19635.58789062  6982.88867188     0.20976397
 49    0.47511107 20279.87304688  6923.54980469     0.20887081
 50    0.48511589 20939.07812500  6860.04882812     0.20791075
 51    0.49512073 21613.37695312  6792.46679688     0.20688409
 52    0.50500250 22294.29101562  6721.60742188     0.20580214
 53    0.51488411 22990.22265625  6646.67871094     0.20465185
 54    0.52488887 23710.59570312  6566.70068359     0.20341687
 55    0.53489357 24446.79101562  6482.59521484     0.20211001
 56    0.54489815 25199.05664062  6394.26220703     0.20072828
 57    0.55490261 25967.63671875  6301.63964844     0.19926918
 58    0.56490695 26752.75000000  6204.66259766     0.19772993
 59    0.57491124 27554.63867188  6103.26416016     0.19610760
 60    0.58491540 28373.52929688  5997.37988281     0.19439904
 61    0.59491950 29209.66601562  5886.94677734     0.19260094
 62    0.60492349 30063.26953125  5771.90771484     0.19070980
 63    0.61492735 30934.57421875  5652.21972656     0.18872215
 64    0.62493110 31823.78515625  5527.86474609     0.18663456
 65    0.63493478 32731.12890625  5398.83154297     0.18444346
 66    0.64493835 33656.78906250  5265.16162109     0.18214580
 67    0.65494186 34600.92187500  5126.92968750     0.17973888
 68    0.66494524 35563.65625000  4984.23144531     0.17721988
 69    0.67494851 36545.08593750  4837.21337891     0.17458662
 70    0.68495166 37545.25781250  4686.06298828     0.17183729
 71    0.69495475 38564.19531250  4531.02050781     0.16897067
 72    0.70495766 39601.82812500  4372.35498047     0.16598584
 73    0.71496058 40658.09375000  4210.40087891     0.16288273
 74    0.72496331 41732.79687500  4045.52001953     0.15966162
 75    0.73496598 42825.75000000  3878.11206055     0.15632322
 76    0.74496853 43936.66406250  3708.61450195     0.15286891
 77    0.75497097 45065.21093750  3537.47875977     0.14930016
 78    0.76497340 46211.02343750  3365.18261719     0.14561887
 79    0.77497560 47373.63671875  3192.20288086     0.14182688
 80    0.78497779 48552.59765625  3019.01367188     0.13792591
 81    0.79497993 49747.37500000  2846.07885742     0.13391733
 82    0.80498183 50957.40625000  2673.81982422     0.12980141
 83    0.81498373 52182.12500000  2502.63549805     0.12557758
 84    0.82498550 53420.92968750  2332.86328125     0.12124336
 85    0.83498716 54673.23046875  2164.74633789     0.11679301
 86    0.84498870 55938.43750000  1998.48901367     0.11221844
 87    0.85499012 57215.98828125  1834.14355469     0.10750533
 88    0.86499149 58505.39062500  1671.69360352     0.10263410
 89    0.87499273 59806.21875000  1511.03442383     0.09757769
 90    0.88499391 61118.17968750  1351.95080566     0.09229831
 91    0.89499491 62441.13281250  1194.22937012     0.08674755
 92    0.90499592 63775.17187500  1037.71069336     0.08086330
 93    0.91499674 65120.64062500   882.44464111     0.07456879
 94    0.92499751 66478.14062500   728.91491699     0.06777222
 95    0.93499815 67848.55468750   578.28527832     0.06036489
 96    0.94499874 69232.89062500   432.80929565     0.05222297
 97    0.95499921 70632.14843750   296.24273682     0.04320532
 98    0.96499950 72046.87500000   174.54060364     0.03316359
 99    0.97499979 73476.13281250    76.49955750     0.02195547
100    0.98500001 74914.15625000    12.28568840     0.00879859
101    0.99500000 76348.06250000   -14.98925018     0.00971859
